
     Program PWSCF v.6.2 starts on  9Apr2025 at 12:25:16 

     This program is part of the open-source Quantum ESPRESSO suite
     for quantum simulation of materials; please cite
         "P. Giannozzi et al., J. Phys.:Condens. Matter 21 395502 (2009);
         "P. Giannozzi et al., J. Phys.:Condens. Matter 29 465901 (2017);
          URL http://www.quantum-espresso.org", 
     in publications or presentations arising from this work. More details at
     http://www.quantum-espresso.org/quote

     Serial version
     Waiting for input...
     Reading input from standard input

     Current dimensions of program PWSCF are:
     Max number of different atomic species (ntypx) = 10
     Max number of k-points (npk) =  40000
     Max angular momentum in pseudopotentials (lmaxx) =  3

     Atomic positions and unit cell read from directory:
     ./tmp/gan.save/

               file Ga.pbe-dn-kjpaw_psl.1.0.0.UPF: wavefunction(s)  4S renormalized
               file N.pbe-n-kjpaw_psl.1.0.0.UPF: wavefunction(s)  2S renormalized

     G-vector sticks info
     --------------------
     sticks:   dense  smooth     PW     G-vecs:    dense   smooth      PW
     Sum         499     499    151                14509    14509    2539



     bravais-lattice index     =            4
     lattice parameter (alat)  =       6.0000  a.u.
     unit-cell volume          =     304.1620 (a.u.)^3
     number of atoms/cell      =            4
     number of atomic types    =            2
     number of electrons       =        36.00
     number of Kohn-Sham states=           22
     kinetic-energy cutoff     =      50.0000  Ry
     charge density cutoff     =     200.0000  Ry
     Exchange-correlation      = SLA PW PBX PBC ( 1  4  3  4 0 0)

     celldm(1)=   6.000000  celldm(2)=   0.000000  celldm(3)=   1.626000
     celldm(4)=   0.000000  celldm(5)=   0.000000  celldm(6)=   0.000000

     crystal axes: (cart. coord. in units of alat)
               a(1) = (   1.000000   0.000000   0.000000 )  
               a(2) = (  -0.500000   0.866025   0.000000 )  
               a(3) = (   0.000000   0.000000   1.626000 )  

     reciprocal axes: (cart. coord. in units 2 pi/alat)
               b(1) = (  1.000000  0.577350 -0.000000 )  
               b(2) = (  0.000000  1.154701  0.000000 )  
               b(3) = (  0.000000 -0.000000  0.615006 )  


     PseudoPot. # 1 for Ga read from file:
     ./pseudo/Ga.pbe-dn-kjpaw_psl.1.0.0.UPF
     MD5 check sum: 50ce49cbf7e0a40ad8623bf41840a268
     Pseudo is Projector augmented-wave + core cor, Zval = 13.0
     Generated using "atomic" code by A. Dal Corso v.6.3
     Shape of augmentation charge: PSQ
     Using radial grid of 1205 points,  6 beta functions with: 
                l(1) =   0
                l(2) =   0
                l(3) =   1
                l(4) =   1
                l(5) =   2
                l(6) =   2
     Q(r) pseudized with 0 coefficients 


     PseudoPot. # 2 for N  read from file:
     ./pseudo/N.pbe-n-kjpaw_psl.1.0.0.UPF
     MD5 check sum: a6186d50559fdcbe4b2d0187dd61a119
     Pseudo is Projector augmented-wave + core cor, Zval =  5.0
     Generated using "atomic" code by A. Dal Corso v.6.3
     Shape of augmentation charge: PSQ
     Using radial grid of 1085 points,  4 beta functions with: 
                l(1) =   0
                l(2) =   0
                l(3) =   1
                l(4) =   1
     Q(r) pseudized with 0 coefficients 


     atomic species   valence    mass     pseudopotential
        Ga            13.00    69.72300     Ga( 1.00)
        N              5.00    14.00700     N ( 1.00)

      6 Sym. Ops. (no inversion) found
          (note:  6 additional sym.ops. were found but ignored
           their fractional translations are incommensurate with FFT grid)


   Cartesian axes

     site n.     atom                  positions (alat units)
         1           Ga  tau(   1) = (   0.0000000   0.0000000   0.0000000  )
         2           Ga  tau(   2) = (  -0.0000005   0.5773506   0.8130000  )
         3           N   tau(   3) = (   0.0000000   0.0000000   0.6097500  )
         4           N   tau(   4) = (  -0.0000005   0.5773506   1.4227500  )

     number of k points=     8  gaussian smearing, width (Ry)=  0.0100
                       cart. coord. in units 2pi/alat
        k(    1) = (   0.0000000   0.0000000   0.0000000), wk =   0.2500000
        k(    2) = (   0.5000000   0.2886751   0.0000000), wk =   0.2500000
        k(    3) = (   0.3330000   0.5767729   0.0000000), wk =   0.2500000
        k(    4) = (   0.0000000   0.0000000   0.0000000), wk =   0.2500000
        k(    5) = (   0.0000000   0.0000000   0.3075031), wk =   0.2500000
        k(    6) = (   0.5000000   0.2886751   0.3075031), wk =   0.2500000
        k(    7) = (   0.3330000   0.5767729   0.3075031), wk =   0.2500000
        k(    8) = (   0.0000000   0.0000000   0.3075031), wk =   0.2500000

     Dense  grid:    14509 G-vectors     FFT dimensions: (  27,  27,  45)

     Estimated max dynamical RAM per process >      50.56 MB

     Check: negative/imaginary core charge=   -0.000022    0.000000

     The potential is recalculated from file :
     ./tmp/gan.save/charge-density.dat

     Starting wfc are   26 randomized atomic wfcs

     Band Structure Calculation
     Davidson diagonalization with overlap

     ethr =  2.78E-11,  avg # of iterations = 34.8

     total cpu time spent up to now is        9.9 secs

     End of band structure calculation

          k = 0.0000 0.0000 0.0000 (  1809 PWs)   bands (ev):

    -6.1731  -5.2144  -3.5598  -3.5383  -3.5383  -3.4738  -3.4737  -3.2796
    -3.2796  -3.1765  -3.1765  -1.9256   2.7562   8.8822   8.8823   9.8918
     9.9562   9.9563  11.9482  14.2889  19.2342  19.9097

          k = 0.5000 0.2887 0.0000 (  1818 PWs)   bands (ev):

    -5.2339  -5.0454  -3.4914  -3.4652  -3.3673  -3.3230  -3.2717  -3.2649
    -3.1865  -3.1504  -2.0428  -1.5060   3.4217   4.6202   5.6407   7.1427
     7.6674   8.9508  15.0544  15.5927  16.0485  18.6557

          k = 0.3330 0.5768 0.0000 (  1785 PWs)   bands (ev):

    -5.0903  -5.0897  -3.5446  -3.3291  -3.3286  -3.3087  -3.2950  -3.2948
    -3.2457  -3.1973  -1.5041  -1.5007   4.5586   4.5603   4.5674   6.8785
     6.8862   7.2050  15.0946  17.8630  17.8684  18.4240

          k = 0.0000 0.0000 0.0000 (  1809 PWs)   bands (ev):

    -6.1731  -5.2144  -3.5598  -3.5383  -3.5383  -3.4738  -3.4737  -3.2796
    -3.2796  -3.1765  -3.1765  -1.9256   2.7562   8.8822   8.8823   9.8918
     9.9562   9.9563  11.9482  14.2889  19.2342  19.9097

          k = 0.0000 0.0000 0.3075 (  1822 PWs)   bands (ev):

    -5.5896  -5.5895  -3.5166  -3.5166  -3.5166  -3.5166  -3.2184  -3.2184
    -3.2184  -3.2184  -3.2137  -3.2135   6.0552   6.0553   9.4052   9.4052
     9.4053   9.4053  14.2734  14.2734  18.5217  18.5219

          k = 0.5000 0.2887 0.3075 (  1808 PWs)   bands (ev):

    -5.0863  -5.0862  -3.4938  -3.4937  -3.3623  -3.3622  -3.2488  -3.2487
    -3.1789  -3.1788  -1.8176  -1.8176   3.2648   3.2648   7.9711   7.9711
     8.0032   8.0033  14.3951  14.3952  17.8297  17.8298

          k = 0.3330 0.5768 0.3075 (  1830 PWs)   bands (ev):

    -5.0427  -5.0426  -3.4189  -3.4188  -3.3998  -3.3998  -3.2584  -3.2583
    -3.2332  -3.2331  -1.4893  -1.4892   3.7117   3.7117   5.6853   5.6854
     8.4236   8.4236  16.4696  16.4697  17.3084  17.3084

          k = 0.0000 0.0000 0.3075 (  1822 PWs)   bands (ev):

    -5.5896  -5.5895  -3.5166  -3.5166  -3.5166  -3.5166  -3.2184  -3.2184
    -3.2184  -3.2184  -3.2137  -3.2135   6.0552   6.0553   9.4052   9.4052
     9.4053   9.4053  14.2734  14.2734  18.5217  18.5219

     Writing output data file gan.save

     init_run     :      1.12s CPU      1.16s WALL (       1 calls)
     electrons    :      7.86s CPU      7.88s WALL (       1 calls)

     Called by init_run:
     wfcinit      :      0.00s CPU      0.00s WALL (       1 calls)
     potinit      :      0.48s CPU      0.50s WALL (       1 calls)

     Called by electrons:
     c_bands      :      7.86s CPU      7.88s WALL (       1 calls)
     v_of_rho     :      0.02s CPU      0.02s WALL (       1 calls)
     newd         :      0.04s CPU      0.05s WALL (       1 calls)
     PAW_pot      :      0.46s CPU      0.48s WALL (       1 calls)

     Called by c_bands:
     init_us_2    :      0.01s CPU      0.01s WALL (       8 calls)
     cegterg      :      7.50s CPU      7.51s WALL (      18 calls)

     Called by sum_band:

     Called by *egterg:
     h_psi        :      4.05s CPU      4.07s WALL (     304 calls)
     s_psi        :      0.56s CPU      0.56s WALL (     304 calls)
     g_psi        :      0.03s CPU      0.03s WALL (     278 calls)
     cdiaghg      :      0.42s CPU      0.42s WALL (     286 calls)

     Called by h_psi:
     h_psi:pot    :      4.03s CPU      4.04s WALL (     304 calls)
     h_psi:calbec :      0.56s CPU      0.56s WALL (     304 calls)
     vloc_psi     :      2.91s CPU      2.92s WALL (     304 calls)
     add_vuspsi   :      0.56s CPU      0.56s WALL (     304 calls)

     General routines
     calbec       :      0.56s CPU      0.56s WALL (     304 calls)
     fft          :      0.01s CPU      0.01s WALL (      13 calls)
     fftw         :      2.68s CPU      2.69s WALL (    7810 calls)
     davcio       :      0.00s CPU      0.01s WALL (      16 calls)


     PWSCF        :     9.79s CPU         9.96s WALL


   This run was terminated on:  12:25:26   9Apr2025            

=------------------------------------------------------------------------------=
   JOB DONE.
=------------------------------------------------------------------------------=
