
     Program BANDS v.6.2 starts on  9Apr2025 at 12:26:50 

     This program is part of the open-source Quantum ESPRESSO suite
     for quantum simulation of materials; please cite
         "P. Giannozzi et al., J. Phys.:Condens. Matter 21 395502 (2009);
         "P. Giannozzi et al., J. Phys.:Condens. Matter 29 465901 (2017);
          URL http://www.quantum-espresso.org", 
     in publications or presentations arising from this work. More details at
     http://www.quantum-espresso.org/quote

     Serial version

     Reading data from directory:
     ./tmp/gan.save/

     IMPORTANT: XC functional enforced from input :
     Exchange-correlation      = PBE ( 1  4  3  4 0 0)
     Any further DFT definition will be discarded
     Please, verify this is what you really want

               file Ga.pbe-dn-kjpaw_psl.1.0.0.UPF: wavefunction(s)  4S renormalized
               file N.pbe-n-kjpaw_psl.1.0.0.UPF: wavefunction(s)  2S renormalized

     G-vector sticks info
     --------------------
     sticks:   dense  smooth     PW     G-vecs:    dense   smooth      PW
     Sum         499     499    151                14509    14509    2539


     Check: negative/imaginary core charge=   -0.000022    0.000000
     high-symmetry point:  0.0000 0.0000 0.0000   x coordinate   0.0000
     high-symmetry point:  0.5000 0.2887 0.0000   x coordinate   0.5774
     high-symmetry point:  0.3330 0.5768 0.0000   x coordinate   0.9104
     high-symmetry point:  0.0000 0.0000 0.0000   x coordinate   1.5764
     high-symmetry point:  0.0000 0.0000 0.3075   x coordinate   1.8839
     high-symmetry point:  0.5000 0.2887 0.3075   x coordinate   2.4612
     high-symmetry point:  0.3330 0.5768 0.3075   x coordinate   2.7942
     high-symmetry point:  0.0000 0.0000 0.3075   x coordinate   3.4602

     Plottable bands (eV) written to file gan.bands.dat.gnu
     Bands written to file gan.bands.dat

 **************************************************************************

                    xk=(   0.00000,   0.00000,   0.00000  )

     point group C_3v (3m)  
     there are  3 classes
     the character table:

       E     2C3   3s_v 
A_1    1.00  1.00  1.00
A_2    1.00  1.00 -1.00
E      2.00 -1.00  0.00

     the symmetry operations in each class and the name of the first element:

     E        1
                                                                 
     2C3      2    3
                                                                 
     3s_v     4    5    6
                                                                 

     Band symmetry, C_3v (3m)   point group:

     e(  1 -  1) =     -6.17312  eV     1   --> A_1  L_1       
     e(  2 -  2) =     -5.21443  eV     1   --> A_1  L_1       
     e(  3 -  3) =     -3.55977  eV     1   --> A_1  L_1       
     e(  4 -  5) =     -3.53833  eV     2   --> E    L_3       
     e(  6 -  7) =     -3.47375  eV     2   --> E    L_3       
     e(  8 -  9) =     -3.27964  eV     2   --> E    L_3       
     e( 10 - 11) =     -3.17653  eV     2   --> E    L_3       
     e( 12 - 12) =     -1.92561  eV     1   --> A_1  L_1       
     e( 13 - 13) =      2.75621  eV     1   --> A_1  L_1       
     e( 14 - 15) =      8.88221  eV     2   --> E    L_3       
     e( 16 - 16) =      9.89182  eV     1   --> A_1  L_1       
     e( 17 - 18) =      9.95623  eV     2   --> E    L_3       
     e( 19 - 19) =     11.94816  eV     1   --> A_1  L_1       
     e( 20 - 20) =     14.28893  eV     1   --> A_1  L_1       
     e( 21 - 21) =     19.23415  eV     1   --> A_1  L_1       
     e( 22 - 22) =     19.90968  eV     1   -->   ?

 **************************************************************************

 **************************************************************************

                    xk=(   0.50000,   0.28868,   0.00000  )

     point group C_s (m)    
     there are  2 classes
     the character table:

       E     s    
A'     1.00  1.00
A''    1.00 -1.00

     the symmetry operations in each class and the name of the first element:

     E        1
                                                                 
     s        2
                                                                 

     Band symmetry, C_s (m)     point group:

     e(  1 -  1) =     -5.23390  eV     1   --> A'             
     e(  2 -  2) =     -5.04536  eV     1   --> A'             
     e(  3 -  3) =     -3.49139  eV     1   --> A'             
     e(  4 -  4) =     -3.46520  eV     1   --> A''            
     e(  5 -  5) =     -3.36734  eV     1   --> A'             
     e(  6 -  6) =     -3.32296  eV     1   --> A'             
     e(  7 -  7) =     -3.27166  eV     1   --> A''            
     e(  8 -  8) =     -3.26489  eV     1   --> A'             
     e(  9 -  9) =     -3.18648  eV     1   --> A''            
     e( 10 - 10) =     -3.15038  eV     1   --> A''            
     e( 11 - 11) =     -2.04284  eV     1   --> A'             
     e( 12 - 12) =     -1.50604  eV     1   --> A'             
     e( 13 - 13) =      3.42172  eV     1   --> A'             
     e( 14 - 14) =      4.62018  eV     1   --> A'             
     e( 15 - 15) =      5.64071  eV     1   --> A'             
     e( 16 - 16) =      7.14272  eV     1   --> A''            
     e( 17 - 17) =      7.66742  eV     1   --> A'             
     e( 18 - 18) =      8.95077  eV     1   --> A''            
     e( 19 - 19) =     15.05441  eV     1   --> A'             
     e( 20 - 20) =     15.59273  eV     1   --> A'             
     e( 21 - 21) =     16.04845  eV     1   --> A'             
     e( 22 - 22) =     18.65572  eV     1   --> A'             

 **************************************************************************

 **************************************************************************

                    xk=(   0.33300,   0.57677,   0.00000  )

     point group C_1 (1)    
     there are  1 classes
     the character table:

       E    
A      1.00

     the symmetry operations in each class and the name of the first element:

     E        1
                                                                 

     Band symmetry, C_1 (1)     point group:

     e(  1 -  1) =     -5.09029  eV     1   --> A              
     e(  2 -  2) =     -5.08970  eV     1   --> A              
     e(  3 -  3) =     -3.54459  eV     1   --> A              
     e(  4 -  4) =     -3.32913  eV     1   --> A              
     e(  5 -  5) =     -3.32863  eV     1   --> A              
     e(  6 -  6) =     -3.30873  eV     1   --> A              
     e(  7 -  7) =     -3.29499  eV     1   --> A              
     e(  8 -  8) =     -3.29482  eV     1   --> A              
     e(  9 -  9) =     -3.24572  eV     1   --> A              
     e( 10 - 10) =     -3.19726  eV     1   --> A              
     e( 11 - 11) =     -1.50410  eV     1   --> A              
     e( 12 - 12) =     -1.50073  eV     1   --> A              
     e( 13 - 13) =      4.55861  eV     1   --> A              
     e( 14 - 14) =      4.56033  eV     1   --> A              
     e( 15 - 15) =      4.56745  eV     1   --> A              
     e( 16 - 16) =      6.87848  eV     1   --> A              
     e( 17 - 17) =      6.88624  eV     1   --> A              
     e( 18 - 18) =      7.20502  eV     1   --> A              
     e( 19 - 19) =     15.09460  eV     1   --> A              
     e( 20 - 20) =     17.86304  eV     1   --> A              
     e( 21 - 21) =     17.86835  eV     1   --> A              
     e( 22 - 22) =     18.42403  eV     1   --> A              

 **************************************************************************

 **************************************************************************

                    xk=(   0.00000,   0.00000,   0.00000  )

     point group C_3v (3m)  
     there are  3 classes
     the character table:

       E     2C3   3s_v 
A_1    1.00  1.00  1.00
A_2    1.00  1.00 -1.00
E      2.00 -1.00  0.00

     the symmetry operations in each class and the name of the first element:

     E        1
                                                                 
     2C3      2    3
                                                                 
     3s_v     4    5    6
                                                                 

     Band symmetry, C_3v (3m)   point group:

     e(  1 -  1) =     -6.17312  eV     1   --> A_1  L_1       
     e(  2 -  2) =     -5.21443  eV     1   --> A_1  L_1       
     e(  3 -  3) =     -3.55977  eV     1   --> A_1  L_1       
     e(  4 -  5) =     -3.53833  eV     2   --> E    L_3       
     e(  6 -  7) =     -3.47375  eV     2   --> E    L_3       
     e(  8 -  9) =     -3.27964  eV     2   --> E    L_3       
     e( 10 - 11) =     -3.17653  eV     2   --> E    L_3       
     e( 12 - 12) =     -1.92561  eV     1   --> A_1  L_1       
     e( 13 - 13) =      2.75621  eV     1   --> A_1  L_1       
     e( 14 - 15) =      8.88221  eV     2   --> E    L_3       
     e( 16 - 16) =      9.89182  eV     1   --> A_1  L_1       
     e( 17 - 18) =      9.95623  eV     2   --> E    L_3       
     e( 19 - 19) =     11.94816  eV     1   --> A_1  L_1       
     e( 20 - 20) =     14.28893  eV     1   --> A_1  L_1       
     e( 21 - 21) =     19.23415  eV     1   --> A_1  L_1       
     e( 22 - 22) =     19.90968  eV     1   -->   ?

 **************************************************************************

 **************************************************************************

                    xk=(   0.00000,   0.00000,   0.30750  )

     Band symmetry, C_3v (3m)   point group:

     e(  1 -  2) =     -5.58961  eV     2   -->   2 A_1  L_1       
     e(  3 -  6) =     -3.51663  eV     4   -->   2 E    L_3       
     e(  7 - 10) =     -3.21841  eV     4   -->   2 E    L_3       
     e( 11 - 11) =     -3.21371  eV     1   --> A_1  L_1       
     e( 12 - 12) =     -3.21353  eV     1   --> A_1  L_1       
     e( 13 - 14) =      6.05523  eV     2   -->   2 A_1  L_1       
     e( 15 - 18) =      9.40516  eV     4   -->   2 E    L_3       
     e( 19 - 20) =     14.27336  eV     2   -->   2 A_1  L_1       
     e( 21 - 21) =     18.52175  eV     1   --> A_1  L_1       
     e( 22 - 22) =     18.52194  eV     1   --> A_1  L_1       

 **************************************************************************

 **************************************************************************

                    xk=(   0.50000,   0.28868,   0.30750  )

     point group C_s (m)    
     there are  2 classes
     the character table:

       E     s    
A'     1.00  1.00
A''    1.00 -1.00

     the symmetry operations in each class and the name of the first element:

     E        1
                                                                 
     s        2
                                                                 

     Band symmetry, C_s (m)     point group:

     e(  1 -  2) =     -5.08630  eV     2   -->   2 A'             
     e(  3 -  4) =     -3.49380  eV     2   -->   2 A'             
     e(  5 -  6) =     -3.36225  eV     2   -->   2 A''            
     e(  7 -  8) =     -3.24880  eV     2   -->   2 A'             
     e(  9 - 10) =     -3.17886  eV     2   -->   2 A''            
     e( 11 - 12) =     -1.81760  eV     2   -->   2 A'             
     e( 13 - 14) =      3.26476  eV     2   -->   2 A'             
     e( 15 - 16) =      7.97107  eV     2   -->   2 A''            
     e( 17 - 18) =      8.00324  eV     2   -->   2 A'             
     e( 19 - 20) =     14.39509  eV     2   -->   2 A'             
     e( 21 - 21) =     17.82971  eV     1   --> A'             
     e( 22 - 22) =     17.82982  eV     1   --> A'             

 **************************************************************************

 **************************************************************************

                    xk=(   0.33300,   0.57677,   0.30750  )

     point group C_1 (1)    
     there are  1 classes
     the character table:

       E    
A      1.00

     the symmetry operations in each class and the name of the first element:

     E        1
                                                                 

     Band symmetry, C_1 (1)     point group:

     e(  1 -  2) =     -5.04265  eV     2   -->   2 A              
     e(  3 -  4) =     -3.41889  eV     2   -->   2 A              
     e(  5 -  6) =     -3.39982  eV     2   -->   2 A              
     e(  7 -  8) =     -3.25838  eV     2   -->   2 A              
     e(  9 - 10) =     -3.23316  eV     2   -->   2 A              
     e( 11 - 12) =     -1.48925  eV     2   -->   2 A              
     e( 13 - 14) =      3.71168  eV     2   -->   2 A              
     e( 15 - 16) =      5.68533  eV     2   -->   2 A              
     e( 17 - 18) =      8.42360  eV     2   -->   2 A              
     e( 19 - 20) =     16.46963  eV     2   -->   2 A              
     e( 21 - 22) =     17.30836  eV     2   -->   2 A              

 **************************************************************************

 **************************************************************************

                    xk=(   0.00000,   0.00000,   0.30750  )

     point group C_3v (3m)  
     there are  3 classes
     the character table:

       E     2C3   3s_v 
A_1    1.00  1.00  1.00
A_2    1.00  1.00 -1.00
E      2.00 -1.00  0.00

     the symmetry operations in each class and the name of the first element:

     E        1
                                                                 
     2C3      2    3
                                                                 
     3s_v     4    5    6
                                                                 

     Band symmetry, C_3v (3m)   point group:

     e(  1 -  2) =     -5.58961  eV     2   -->   2 A_1  L_1       
     e(  3 -  6) =     -3.51663  eV     4   -->   2 E    L_3       
     e(  7 - 10) =     -3.21841  eV     4   -->   2 E    L_3       
     e( 11 - 11) =     -3.21371  eV     1   --> A_1  L_1       
     e( 12 - 12) =     -3.21353  eV     1   --> A_1  L_1       
     e( 13 - 14) =      6.05523  eV     2   -->   2 A_1  L_1       
     e( 15 - 18) =      9.40516  eV     4   -->   2 E    L_3       
     e( 19 - 20) =     14.27336  eV     2   -->   2 A_1  L_1       
     e( 21 - 21) =     18.52175  eV     1   --> A_1  L_1       
     e( 22 - 22) =     18.52194  eV     1   --> A_1  L_1       

 **************************************************************************

     BANDS        :     2.36s CPU         2.45s WALL


   This run was terminated on:  12:26:53   9Apr2025            

=------------------------------------------------------------------------------=
   JOB DONE.
=------------------------------------------------------------------------------=
