
     Program PWSCF v.6.2 starts on 30Apr2025 at 12:12:26 

     This program is part of the open-source Quantum ESPRESSO suite
     for quantum simulation of materials; please cite
         "P. Giannozzi et al., J. Phys.:Condens. Matter 21 395502 (2009);
         "P. Giannozzi et al., J. Phys.:Condens. Matter 29 465901 (2017);
          URL http://www.quantum-espresso.org", 
     in publications or presentations arising from this work. More details at
     http://www.quantum-espresso.org/quote

     Serial version
     Waiting for input...
     Reading input from standard input

     Current dimensions of program PWSCF are:
     Max number of different atomic species (ntypx) = 10
     Max number of k-points (npk) =  40000
     Max angular momentum in pseudopotentials (lmaxx) =  3

     Atomic positions and unit cell read from directory:
     ./tmp/gan.save/

               file Ga.pbe-dn-kjpaw_psl.1.0.0.UPF: wavefunction(s)  4S renormalized
               file N.pbe-n-kjpaw_psl.1.0.0.UPF: wavefunction(s)  2S renormalized

     G-vector sticks info
     --------------------
     sticks:   dense  smooth     PW     G-vecs:    dense   smooth      PW
     Sum         499     499    151                14509    14509    2539



     bravais-lattice index     =            4
     lattice parameter (alat)  =       6.0000  a.u.
     unit-cell volume          =     304.1620 (a.u.)^3
     number of atoms/cell      =            4
     number of atomic types    =            2
     number of electrons       =        36.00
     number of Kohn-Sham states=           22
     kinetic-energy cutoff     =      50.0000  Ry
     charge density cutoff     =     200.0000  Ry
     Exchange-correlation      = SLA PW PBX PBC ( 1  4  3  4 0 0)

     celldm(1)=   6.000000  celldm(2)=   0.000000  celldm(3)=   1.626000
     celldm(4)=   0.000000  celldm(5)=   0.000000  celldm(6)=   0.000000

     crystal axes: (cart. coord. in units of alat)
               a(1) = (   1.000000   0.000000   0.000000 )  
               a(2) = (  -0.500000   0.866025   0.000000 )  
               a(3) = (   0.000000   0.000000   1.626000 )  

     reciprocal axes: (cart. coord. in units 2 pi/alat)
               b(1) = (  1.000000  0.577350 -0.000000 )  
               b(2) = (  0.000000  1.154701  0.000000 )  
               b(3) = (  0.000000 -0.000000  0.615006 )  


     PseudoPot. # 1 for Ga read from file:
     ./pseudo/Ga.pbe-dn-kjpaw_psl.1.0.0.UPF
     MD5 check sum: 50ce49cbf7e0a40ad8623bf41840a268
     Pseudo is Projector augmented-wave + core cor, Zval = 13.0
     Generated using "atomic" code by A. Dal Corso v.6.3
     Shape of augmentation charge: PSQ
     Using radial grid of 1205 points,  6 beta functions with: 
                l(1) =   0
                l(2) =   0
                l(3) =   1
                l(4) =   1
                l(5) =   2
                l(6) =   2
     Q(r) pseudized with 0 coefficients 


     PseudoPot. # 2 for N  read from file:
     ./pseudo/N.pbe-n-kjpaw_psl.1.0.0.UPF
     MD5 check sum: a6186d50559fdcbe4b2d0187dd61a119
     Pseudo is Projector augmented-wave + core cor, Zval =  5.0
     Generated using "atomic" code by A. Dal Corso v.6.3
     Shape of augmentation charge: PSQ
     Using radial grid of 1085 points,  4 beta functions with: 
                l(1) =   0
                l(2) =   0
                l(3) =   1
                l(4) =   1
     Q(r) pseudized with 0 coefficients 


     atomic species   valence    mass     pseudopotential
        Ga            13.00    69.72300     Ga( 1.00)
        N              5.00    14.00700     N ( 1.00)

      6 Sym. Ops. (no inversion) found
          (note:  6 additional sym.ops. were found but ignored
           their fractional translations are incommensurate with FFT grid)


   Cartesian axes

     site n.     atom                  positions (alat units)
         1           Ga  tau(   1) = (   0.0000000   0.0000000   0.0000000  )
         2           Ga  tau(   2) = (  -0.0000005   0.5773506   0.8130000  )
         3           N   tau(   3) = (   0.0000000   0.0000000   0.6097500  )
         4           N   tau(   4) = (  -0.0000005   0.5773506   1.4227500  )

     number of k points=   131 (tetrahedron method)

     Number of k-points >= 100: set verbosity='high' to print them.

     Dense  grid:    14509 G-vectors     FFT dimensions: (  27,  27,  45)

     Estimated max dynamical RAM per process >      50.56 MB

     Check: negative/imaginary core charge=   -0.000022    0.000000

     The potential is recalculated from file :
     ./tmp/gan.save/charge-density.dat

     Starting wfc are   26 randomized atomic wfcs

     Band Structure Calculation
     Davidson diagonalization with overlap

     ethr =  2.78E-09,  avg # of iterations = 25.4

     total cpu time spent up to now is      145.4 secs

     End of band structure calculation

     Number of k-points >= 100: set verbosity='high' to print the bands.

     the Fermi energy is    11.3417 ev

     Writing output data file gan.save

     init_run     :      1.65s CPU      1.72s WALL (       1 calls)
     electrons    :    142.19s CPU    142.58s WALL (       1 calls)

     Called by init_run:
     wfcinit      :      0.00s CPU      0.00s WALL (       1 calls)
     potinit      :      0.73s CPU      0.76s WALL (       1 calls)

     Called by electrons:
     c_bands      :    142.16s CPU    142.55s WALL (       1 calls)
     v_of_rho     :      0.04s CPU      0.04s WALL (       1 calls)
     newd         :      0.07s CPU      0.10s WALL (       1 calls)
     PAW_pot      :      0.68s CPU      0.71s WALL (       1 calls)

     Called by c_bands:
     init_us_2    :      0.16s CPU      0.19s WALL (     131 calls)
     cegterg      :    134.23s CPU    134.52s WALL (     258 calls)

     Called by sum_band:

     Called by *egterg:
     h_psi        :     73.51s CPU     73.73s WALL (    3720 calls)
     s_psi        :      9.84s CPU      9.85s WALL (    3720 calls)
     g_psi        :      0.46s CPU      0.46s WALL (    3331 calls)
     cdiaghg      :      6.63s CPU      6.64s WALL (    3462 calls)

     Called by h_psi:
     h_psi:pot    :     72.80s CPU     73.02s WALL (    3720 calls)
     h_psi:calbec :     10.53s CPU     10.54s WALL (    3720 calls)
     vloc_psi     :     52.38s CPU     52.57s WALL (    3720 calls)
     add_vuspsi   :      9.87s CPU      9.88s WALL (    3720 calls)

     General routines
     calbec       :     10.51s CPU     10.52s WALL (    3720 calls)
     fft          :      0.01s CPU      0.01s WALL (      13 calls)
     fftw         :     47.71s CPU     47.90s WALL (  103708 calls)
     davcio       :      0.05s CPU      0.13s WALL (     262 calls)


     PWSCF        :  2m25.05s CPU     2m26.38s WALL


   This run was terminated on:  12:14:53  30Apr2025            

=------------------------------------------------------------------------------=
   JOB DONE.
=------------------------------------------------------------------------------=
