
     Program PWSCF v.6.2 starts on 30Apr2025 at 12: 3:45 

     This program is part of the open-source Quantum ESPRESSO suite
     for quantum simulation of materials; please cite
         "P. Giannozzi et al., J. Phys.:Condens. Matter 21 395502 (2009);
         "P. Giannozzi et al., J. Phys.:Condens. Matter 29 465901 (2017);
          URL http://www.quantum-espresso.org", 
     in publications or presentations arising from this work. More details at
     http://www.quantum-espresso.org/quote

     Serial version
     Waiting for input...
     Reading input from standard input

     Current dimensions of program PWSCF are:
     Max number of different atomic species (ntypx) = 10
     Max number of k-points (npk) =  40000
     Max angular momentum in pseudopotentials (lmaxx) =  3
               file Ga.pbe-dn-kjpaw_psl.1.0.0.UPF: wavefunction(s)  4S renormalized
               file N.pbe-n-kjpaw_psl.1.0.0.UPF: wavefunction(s)  2S renormalized

     G-vector sticks info
     --------------------
     sticks:   dense  smooth     PW     G-vecs:    dense   smooth      PW
     Sum         499     499    151                14509    14509    2479



     bravais-lattice index     =            4
     lattice parameter (alat)  =       6.0000  a.u.
     unit-cell volume          =     304.1620 (a.u.)^3
     number of atoms/cell      =            4
     number of atomic types    =            2
     number of electrons       =        36.00
     number of Kohn-Sham states=           22
     kinetic-energy cutoff     =      50.0000  Ry
     charge density cutoff     =     200.0000  Ry
     convergence threshold     =      1.0E-08
     mixing beta               =       0.7000
     number of iterations used =            8  plain     mixing
     Exchange-correlation      = SLA PW PBX PBC ( 1  4  3  4 0 0)

     celldm(1)=   6.000000  celldm(2)=   0.000000  celldm(3)=   1.626000
     celldm(4)=   0.000000  celldm(5)=   0.000000  celldm(6)=   0.000000

     crystal axes: (cart. coord. in units of alat)
               a(1) = (   1.000000   0.000000   0.000000 )  
               a(2) = (  -0.500000   0.866025   0.000000 )  
               a(3) = (   0.000000   0.000000   1.626000 )  

     reciprocal axes: (cart. coord. in units 2 pi/alat)
               b(1) = (  1.000000  0.577350 -0.000000 )  
               b(2) = (  0.000000  1.154701  0.000000 )  
               b(3) = (  0.000000 -0.000000  0.615006 )  


     PseudoPot. # 1 for Ga read from file:
     ./pseudo/Ga.pbe-dn-kjpaw_psl.1.0.0.UPF
     MD5 check sum: 50ce49cbf7e0a40ad8623bf41840a268
     Pseudo is Projector augmented-wave + core cor, Zval = 13.0
     Generated using "atomic" code by A. Dal Corso v.6.3
     Shape of augmentation charge: PSQ
     Using radial grid of 1205 points,  6 beta functions with: 
                l(1) =   0
                l(2) =   0
                l(3) =   1
                l(4) =   1
                l(5) =   2
                l(6) =   2
     Q(r) pseudized with 0 coefficients 


     PseudoPot. # 2 for N  read from file:
     ./pseudo/N.pbe-n-kjpaw_psl.1.0.0.UPF
     MD5 check sum: a6186d50559fdcbe4b2d0187dd61a119
     Pseudo is Projector augmented-wave + core cor, Zval =  5.0
     Generated using "atomic" code by A. Dal Corso v.6.3
     Shape of augmentation charge: PSQ
     Using radial grid of 1085 points,  4 beta functions with: 
                l(1) =   0
                l(2) =   0
                l(3) =   1
                l(4) =   1
     Q(r) pseudized with 0 coefficients 


     atomic species   valence    mass     pseudopotential
        Ga            13.00    69.72300     Ga( 1.00)
        N              5.00    14.00700     N ( 1.00)

      6 Sym. Ops. (no inversion) found
          (note:  6 additional sym.ops. were found but ignored
           their fractional translations are incommensurate with FFT grid)

                                    s                        frac. trans.

      isym =  1     identity                                     

 cryst.   s( 1) = (     1          0          0      )
                  (     0          1          0      )
                  (     0          0          1      )

 cart.    s( 1) = (  1.0000000  0.0000000  0.0000000 )
                  (  0.0000000  1.0000000  0.0000000 )
                  (  0.0000000  0.0000000  1.0000000 )


      isym =  2     120 deg rotation - cryst. axis [0,0,1]       

 cryst.   s( 2) = (     0          1          0      )
                  (    -1         -1          0      )
                  (     0          0          1      )

 cart.    s( 2) = ( -0.5000000 -0.8660254  0.0000000 )
                  (  0.8660254 -0.5000000  0.0000000 )
                  (  0.0000000  0.0000000  1.0000000 )


      isym =  3     120 deg rotation - cryst. axis [0,0,-1]      

 cryst.   s( 3) = (    -1         -1          0      )
                  (     1          0          0      )
                  (     0          0          1      )

 cart.    s( 3) = ( -0.5000000  0.8660254  0.0000000 )
                  ( -0.8660254 -0.5000000  0.0000000 )
                  (  0.0000000  0.0000000  1.0000000 )


      isym =  4     inv. 180 deg rotation - cart. axis [1,0,0]   

 cryst.   s( 4) = (    -1          0          0      )
                  (     1          1          0      )
                  (     0          0          1      )

 cart.    s( 4) = ( -1.0000000  0.0000000  0.0000000 )
                  (  0.0000000  1.0000000  0.0000000 )
                  (  0.0000000  0.0000000  1.0000000 )


      isym =  5     inv. 180 deg rotation - cryst. axis [0,1,0]  

 cryst.   s( 5) = (     1          1          0      )
                  (     0         -1          0      )
                  (     0          0          1      )

 cart.    s( 5) = (  0.5000000  0.8660254  0.0000000 )
                  (  0.8660254 -0.5000000  0.0000000 )
                  (  0.0000000  0.0000000  1.0000000 )


      isym =  6     inv. 180 deg rotation - cryst. axis [1,1,0]  

 cryst.   s( 6) = (     0         -1          0      )
                  (    -1          0          0      )
                  (     0          0          1      )

 cart.    s( 6) = (  0.5000000 -0.8660254  0.0000000 )
                  ( -0.8660254 -0.5000000  0.0000000 )
                  (  0.0000000  0.0000000  1.0000000 )


     point group C_3v (3m)  
     there are  3 classes
     the character table:

       E     2C3   3s_v 
A_1    1.00  1.00  1.00
A_2    1.00  1.00 -1.00
E      2.00 -1.00  0.00

     the symmetry operations in each class and the name of the first element:

     E        1
          identity                                               
     2C3      2    3
          120 deg rotation - cryst. axis [0,0,1]                 
     3s_v     4    5    6
          inv. 180 deg rotation - cart. axis [1,0,0]             

   Cartesian axes

     site n.     atom                  positions (alat units)
         1           Ga  tau(   1) = (   0.0000000   0.0000000   0.0000000  )
         2           Ga  tau(   2) = (  -0.0000005   0.5773506   0.8130000  )
         3           N   tau(   3) = (   0.0000000   0.0000000   0.6097500  )
         4           N   tau(   4) = (  -0.0000005   0.5773506   1.4227500  )

   Crystallographic axes

     site n.     atom                  positions (cryst. coord.)
         1           Ga  tau(   1) = (  0.0000000  0.0000000  0.0000000  )
         2           Ga  tau(   2) = (  0.3333330  0.6666670  0.5000000  )
         3           N   tau(   3) = (  0.0000000  0.0000000  0.3750000  )
         4           N   tau(   4) = (  0.3333330  0.6666670  0.8750000  )

     number of k points=    50  gaussian smearing, width (Ry)=  0.0100
                       cart. coord. in units 2pi/alat
        k(    1) = (   0.0000000   0.0000000   0.0000000), wk =   0.0052083
        k(    2) = (   0.0000000   0.0000000   0.1025010), wk =   0.0104167
        k(    3) = (   0.0000000   0.0000000   0.2050021), wk =   0.0104167
        k(    4) = (   0.0000000   0.0000000  -0.3075031), wk =   0.0052083
        k(    5) = (   0.0000000   0.1443376   0.0000000), wk =   0.0312500
        k(    6) = (   0.0000000   0.1443376   0.1025010), wk =   0.0312500
        k(    7) = (   0.0000000   0.1443376   0.2050021), wk =   0.0312500
        k(    8) = (   0.0000000   0.1443376  -0.3075031), wk =   0.0312500
        k(    9) = (   0.0000000   0.2886751   0.0000000), wk =   0.0312500
        k(   10) = (   0.0000000   0.2886751   0.1025010), wk =   0.0312500
        k(   11) = (   0.0000000   0.2886751   0.2050021), wk =   0.0312500
        k(   12) = (   0.0000000   0.2886751  -0.3075031), wk =   0.0312500
        k(   13) = (   0.0000000   0.4330127   0.0000000), wk =   0.0312500
        k(   14) = (   0.0000000   0.4330127   0.1025010), wk =   0.0312500
        k(   15) = (   0.0000000   0.4330127   0.2050021), wk =   0.0312500
        k(   16) = (   0.0000000   0.4330127  -0.3075031), wk =   0.0312500
        k(   17) = (   0.0000000  -0.5773503   0.0000000), wk =   0.0156250
        k(   18) = (   0.0000000  -0.5773503   0.1025010), wk =   0.0312500
        k(   19) = (   0.0000000  -0.5773503   0.2050021), wk =   0.0312500
        k(   20) = (   0.0000000  -0.5773503  -0.3075031), wk =   0.0156250
        k(   21) = (   0.1250000   0.2165064   0.0000000), wk =   0.0312500
        k(   22) = (   0.1250000   0.2165064   0.1025010), wk =   0.0625000
        k(   23) = (   0.1250000   0.2165064   0.2050021), wk =   0.0625000
        k(   24) = (   0.1250000   0.2165064  -0.3075031), wk =   0.0312500
        k(   25) = (   0.1250000   0.3608439   0.0000000), wk =   0.0625000
        k(   26) = (   0.1250000   0.3608439   0.1025010), wk =   0.0625000
        k(   27) = (   0.1250000   0.3608439   0.2050021), wk =   0.0625000
        k(   28) = (   0.1250000   0.3608439  -0.3075031), wk =   0.0625000
        k(   29) = (   0.1250000   0.5051815   0.0000000), wk =   0.0625000
        k(   30) = (   0.1250000   0.5051815   0.1025010), wk =   0.0625000
        k(   31) = (   0.1250000   0.5051815   0.2050021), wk =   0.0625000
        k(   32) = (   0.1250000   0.5051815  -0.3075031), wk =   0.0625000
        k(   33) = (   0.2500000   0.4330127   0.0000000), wk =   0.0312500
        k(   34) = (   0.2500000   0.4330127   0.1025010), wk =   0.0625000
        k(   35) = (   0.2500000   0.4330127   0.2050021), wk =   0.0625000
        k(   36) = (   0.2500000   0.4330127  -0.3075031), wk =   0.0312500
        k(   37) = (   0.2500000   0.5773503   0.0000000), wk =   0.0312500
        k(   38) = (   0.2500000   0.5773503   0.1025010), wk =   0.0625000
        k(   39) = (   0.2500000   0.5773503   0.2050021), wk =   0.0625000
        k(   40) = (   0.2500000   0.5773503  -0.3075031), wk =   0.0312500
        k(   41) = (   0.0000000  -0.1443376   0.1025010), wk =   0.0312500
        k(   42) = (   0.0000000  -0.1443376   0.2050021), wk =   0.0312500
        k(   43) = (   0.0000000  -0.2886751   0.1025010), wk =   0.0312500
        k(   44) = (   0.0000000  -0.2886751   0.2050021), wk =   0.0312500
        k(   45) = (   0.0000000  -0.4330127   0.1025010), wk =   0.0312500
        k(   46) = (   0.0000000  -0.4330127   0.2050021), wk =   0.0312500
        k(   47) = (   0.1250000  -0.3608439   0.1025010), wk =   0.0625000
        k(   48) = (   0.1250000  -0.3608439   0.2050021), wk =   0.0625000
        k(   49) = (   0.1250000  -0.5051815   0.1025010), wk =   0.0625000
        k(   50) = (   0.1250000  -0.5051815   0.2050021), wk =   0.0625000

                       cryst. coord.
        k(    1) = (   0.0000000   0.0000000   0.0000000), wk =   0.0052083
        k(    2) = (   0.0000000   0.0000000   0.1666667), wk =   0.0104167
        k(    3) = (   0.0000000   0.0000000   0.3333333), wk =   0.0104167
        k(    4) = (   0.0000000   0.0000000  -0.5000000), wk =   0.0052083
        k(    5) = (   0.0000000   0.1250000   0.0000000), wk =   0.0312500
        k(    6) = (   0.0000000   0.1250000   0.1666667), wk =   0.0312500
        k(    7) = (   0.0000000   0.1250000   0.3333333), wk =   0.0312500
        k(    8) = (   0.0000000   0.1250000  -0.5000000), wk =   0.0312500
        k(    9) = (   0.0000000   0.2500000   0.0000000), wk =   0.0312500
        k(   10) = (   0.0000000   0.2500000   0.1666667), wk =   0.0312500
        k(   11) = (   0.0000000   0.2500000   0.3333333), wk =   0.0312500
        k(   12) = (   0.0000000   0.2500000  -0.5000000), wk =   0.0312500
        k(   13) = (   0.0000000   0.3750000   0.0000000), wk =   0.0312500
        k(   14) = (   0.0000000   0.3750000   0.1666667), wk =   0.0312500
        k(   15) = (   0.0000000   0.3750000   0.3333333), wk =   0.0312500
        k(   16) = (   0.0000000   0.3750000  -0.5000000), wk =   0.0312500
        k(   17) = (   0.0000000  -0.5000000   0.0000000), wk =   0.0156250
        k(   18) = (   0.0000000  -0.5000000   0.1666667), wk =   0.0312500
        k(   19) = (   0.0000000  -0.5000000   0.3333333), wk =   0.0312500
        k(   20) = (   0.0000000  -0.5000000  -0.5000000), wk =   0.0156250
        k(   21) = (   0.1250000   0.1250000   0.0000000), wk =   0.0312500
        k(   22) = (   0.1250000   0.1250000   0.1666667), wk =   0.0625000
        k(   23) = (   0.1250000   0.1250000   0.3333333), wk =   0.0625000
        k(   24) = (   0.1250000   0.1250000  -0.5000000), wk =   0.0312500
        k(   25) = (   0.1250000   0.2500000   0.0000000), wk =   0.0625000
        k(   26) = (   0.1250000   0.2500000   0.1666667), wk =   0.0625000
        k(   27) = (   0.1250000   0.2500000   0.3333333), wk =   0.0625000
        k(   28) = (   0.1250000   0.2500000  -0.5000000), wk =   0.0625000
        k(   29) = (   0.1250000   0.3750000   0.0000000), wk =   0.0625000
        k(   30) = (   0.1250000   0.3750000   0.1666667), wk =   0.0625000
        k(   31) = (   0.1250000   0.3750000   0.3333333), wk =   0.0625000
        k(   32) = (   0.1250000   0.3750000  -0.5000000), wk =   0.0625000
        k(   33) = (   0.2500000   0.2500000   0.0000000), wk =   0.0312500
        k(   34) = (   0.2500000   0.2500000   0.1666667), wk =   0.0625000
        k(   35) = (   0.2500000   0.2500000   0.3333333), wk =   0.0625000
        k(   36) = (   0.2500000   0.2500000  -0.5000000), wk =   0.0312500
        k(   37) = (   0.2500000   0.3750000   0.0000000), wk =   0.0312500
        k(   38) = (   0.2500000   0.3750000   0.1666667), wk =   0.0625000
        k(   39) = (   0.2500000   0.3750000   0.3333333), wk =   0.0625000
        k(   40) = (   0.2500000   0.3750000  -0.5000000), wk =   0.0312500
        k(   41) = (   0.0000000  -0.1250000   0.1666667), wk =   0.0312500
        k(   42) = (   0.0000000  -0.1250000   0.3333333), wk =   0.0312500
        k(   43) = (   0.0000000  -0.2500000   0.1666667), wk =   0.0312500
        k(   44) = (   0.0000000  -0.2500000   0.3333333), wk =   0.0312500
        k(   45) = (   0.0000000  -0.3750000   0.1666667), wk =   0.0312500
        k(   46) = (   0.0000000  -0.3750000   0.3333333), wk =   0.0312500
        k(   47) = (   0.1250000  -0.3750000   0.1666667), wk =   0.0625000
        k(   48) = (   0.1250000  -0.3750000   0.3333333), wk =   0.0625000
        k(   49) = (   0.1250000  -0.5000000   0.1666667), wk =   0.0625000
        k(   50) = (   0.1250000  -0.5000000   0.3333333), wk =   0.0625000

     Dense  grid:    14509 G-vectors     FFT dimensions: (  27,  27,  45)

     Dynamical RAM for                 wfc:       0.61 MB

     Dynamical RAM for     wfc (w. buffer):      31.09 MB

     Dynamical RAM for           str. fact:       0.44 MB

     Dynamical RAM for           local pot:       0.00 MB

     Dynamical RAM for          nlocal pot:       1.44 MB

     Dynamical RAM for                qrad:       2.17 MB

     Dynamical RAM for          rho,v,vnew:       1.42 MB

     Dynamical RAM for               rhoin:       0.47 MB

     Dynamical RAM for            rho*nmix:       3.54 MB

     Dynamical RAM for           G-vectors:       0.94 MB

     Dynamical RAM for          h,s,v(r/c):       0.35 MB

     Dynamical RAM for          <psi|beta>:       0.02 MB

     Dynamical RAM for                 psi:       2.44 MB

     Dynamical RAM for                hpsi:       2.44 MB

     Dynamical RAM for                spsi:       2.44 MB

     Dynamical RAM for      wfcinit/wfcrot:       1.46 MB

     Dynamical RAM for           addusdens:      41.62 MB

     Estimated static dynamical RAM per process >      43.43 MB

     Estimated max dynamical RAM per process >      85.05 MB

     Check: negative/imaginary core charge=   -0.000022    0.000000

     Initial potential from superposition of free atoms

     starting charge   35.99408, renormalised to   36.00000
     Starting wfc are   26 randomized atomic wfcs

     total cpu time spent up to now is        5.8 secs

     Self-consistent Calculation

     iteration #  1     ecut=    50.00 Ry     beta= 0.70
     Davidson diagonalization with overlap
     ethr =  1.00E-02,  avg # of iterations =  3.8

     total cpu time spent up to now is       14.0 secs

     total energy              =    -611.66530838 Ry
     Harris-Foulkes estimate   =    -612.50924097 Ry
     estimated scf accuracy    <       1.13192548 Ry

     iteration #  2     ecut=    50.00 Ry     beta= 0.70
     Davidson diagonalization with overlap
     ethr =  3.14E-03,  avg # of iterations =  5.1

     total cpu time spent up to now is       25.5 secs

     total energy              =    -612.18103634 Ry
     Harris-Foulkes estimate   =    -612.77726841 Ry
     estimated scf accuracy    <       1.38194234 Ry

     iteration #  3     ecut=    50.00 Ry     beta= 0.70
     Davidson diagonalization with overlap
     ethr =  3.14E-03,  avg # of iterations =  2.0

     total cpu time spent up to now is       33.5 secs

     total energy              =    -612.40268925 Ry
     Harris-Foulkes estimate   =    -612.40321306 Ry
     estimated scf accuracy    <       0.05162749 Ry

     iteration #  4     ecut=    50.00 Ry     beta= 0.70
     Davidson diagonalization with overlap
     ethr =  1.43E-04,  avg # of iterations =  4.2

     total cpu time spent up to now is       43.9 secs

     total energy              =    -612.41691971 Ry
     Harris-Foulkes estimate   =    -612.41759186 Ry
     estimated scf accuracy    <       0.01451710 Ry

     iteration #  5     ecut=    50.00 Ry     beta= 0.70
     Davidson diagonalization with overlap
     ethr =  4.03E-05,  avg # of iterations =  2.9

     total cpu time spent up to now is       51.7 secs

     total energy              =    -612.41781778 Ry
     Harris-Foulkes estimate   =    -612.41832897 Ry
     estimated scf accuracy    <       0.00099851 Ry

     iteration #  6     ecut=    50.00 Ry     beta= 0.70
     Davidson diagonalization with overlap
     ethr =  2.77E-06,  avg # of iterations =  4.4

     total cpu time spent up to now is       63.9 secs

     total energy              =    -612.41814137 Ry
     Harris-Foulkes estimate   =    -612.41827914 Ry
     estimated scf accuracy    <       0.00126724 Ry

     iteration #  7     ecut=    50.00 Ry     beta= 0.70
     Davidson diagonalization with overlap
     ethr =  2.77E-06,  avg # of iterations =  1.0

     total cpu time spent up to now is       70.8 secs

     total energy              =    -612.41808317 Ry
     Harris-Foulkes estimate   =    -612.41815331 Ry
     estimated scf accuracy    <       0.00084770 Ry

     iteration #  8     ecut=    50.00 Ry     beta= 0.70
     Davidson diagonalization with overlap
     ethr =  2.35E-06,  avg # of iterations =  1.0

     total cpu time spent up to now is       77.6 secs

     total energy              =    -612.41809140 Ry
     Harris-Foulkes estimate   =    -612.41810066 Ry
     estimated scf accuracy    <       0.00040762 Ry

     iteration #  9     ecut=    50.00 Ry     beta= 0.70
     Davidson diagonalization with overlap
     ethr =  1.13E-06,  avg # of iterations =  1.0

     total cpu time spent up to now is       84.4 secs

     total energy              =    -612.41808249 Ry
     Harris-Foulkes estimate   =    -612.41810022 Ry
     estimated scf accuracy    <       0.00033913 Ry

     iteration # 10     ecut=    50.00 Ry     beta= 0.70
     Davidson diagonalization with overlap
     ethr =  9.42E-07,  avg # of iterations =  1.0

     total cpu time spent up to now is       91.1 secs

     total energy              =    -612.41808296 Ry
     Harris-Foulkes estimate   =    -612.41808861 Ry
     estimated scf accuracy    <       0.00019556 Ry

     iteration # 11     ecut=    50.00 Ry     beta= 0.70
     Davidson diagonalization with overlap
     ethr =  5.43E-07,  avg # of iterations =  1.4

     total cpu time spent up to now is       97.8 secs

     total energy              =    -612.41807085 Ry
     Harris-Foulkes estimate   =    -612.41808844 Ry
     estimated scf accuracy    <       0.00013440 Ry

     iteration # 12     ecut=    50.00 Ry     beta= 0.70
     Davidson diagonalization with overlap
     ethr =  3.73E-07,  avg # of iterations =  3.3

     total cpu time spent up to now is      105.4 secs

     total energy              =    -612.41808827 Ry
     Harris-Foulkes estimate   =    -612.41808845 Ry
     estimated scf accuracy    <       0.00000921 Ry

     iteration # 13     ecut=    50.00 Ry     beta= 0.70
     Davidson diagonalization with overlap
     ethr =  2.56E-08,  avg # of iterations =  4.0

     total cpu time spent up to now is      118.3 secs

     total energy              =    -612.41811683 Ry
     Harris-Foulkes estimate   =    -612.41811238 Ry
     estimated scf accuracy    <       0.00005330 Ry

     iteration # 14     ecut=    50.00 Ry     beta= 0.70
     Davidson diagonalization with overlap
     ethr =  2.56E-08,  avg # of iterations =  1.1

     total cpu time spent up to now is      125.0 secs

     total energy              =    -612.41812944 Ry
     Harris-Foulkes estimate   =    -612.41811693 Ry
     estimated scf accuracy    <       0.00007242 Ry

     iteration # 15     ecut=    50.00 Ry     beta= 0.70
     Davidson diagonalization with overlap
     ethr =  2.56E-08,  avg # of iterations =  3.4

     total cpu time spent up to now is      133.9 secs

     total energy              =    -612.41811470 Ry
     Harris-Foulkes estimate   =    -612.41813195 Ry
     estimated scf accuracy    <       0.00018192 Ry

     iteration # 16     ecut=    50.00 Ry     beta= 0.70
     Davidson diagonalization with overlap
     ethr =  2.56E-08,  avg # of iterations =  1.6

     total cpu time spent up to now is      140.6 secs

     total energy              =    -612.41808950 Ry
     Harris-Foulkes estimate   =    -612.41811541 Ry
     estimated scf accuracy    <       0.00011200 Ry

     iteration # 17     ecut=    50.00 Ry     beta= 0.70
     Davidson diagonalization with overlap
     ethr =  2.56E-08,  avg # of iterations =  4.0

     total cpu time spent up to now is      153.4 secs

     total energy              =    -612.41810169 Ry
     Harris-Foulkes estimate   =    -612.41810168 Ry
     estimated scf accuracy    <       0.00000033 Ry

     iteration # 18     ecut=    50.00 Ry     beta= 0.70
     Davidson diagonalization with overlap
     ethr =  9.15E-10,  avg # of iterations =  3.3

     total cpu time spent up to now is      161.5 secs

     total energy              =    -612.41810177 Ry
     Harris-Foulkes estimate   =    -612.41810175 Ry
     estimated scf accuracy    <       0.00000018 Ry

     iteration # 19     ecut=    50.00 Ry     beta= 0.70
     Davidson diagonalization with overlap
     ethr =  5.05E-10,  avg # of iterations =  3.0

     total cpu time spent up to now is      170.2 secs

     total energy              =    -612.41810153 Ry
     Harris-Foulkes estimate   =    -612.41810180 Ry
     estimated scf accuracy    <       0.00000048 Ry

     iteration # 20     ecut=    50.00 Ry     beta= 0.70
     Davidson diagonalization with overlap
     ethr =  5.05E-10,  avg # of iterations =  4.0

     total cpu time spent up to now is      184.2 secs

     total energy              =    -612.41810179 Ry
     Harris-Foulkes estimate   =    -612.41810174 Ry
     estimated scf accuracy    <       0.00000061 Ry

     iteration # 21     ecut=    50.00 Ry     beta= 0.70
     Davidson diagonalization with overlap
     ethr =  5.05E-10,  avg # of iterations =  1.0

     total cpu time spent up to now is      191.3 secs

     total energy              =    -612.41810164 Ry
     Harris-Foulkes estimate   =    -612.41810179 Ry
     estimated scf accuracy    <       0.00000066 Ry

     iteration # 22     ecut=    50.00 Ry     beta= 0.70
     Davidson diagonalization with overlap
     ethr =  5.05E-10,  avg # of iterations =  1.4

     total cpu time spent up to now is      198.5 secs

     total energy              =    -612.41810163 Ry
     Harris-Foulkes estimate   =    -612.41810166 Ry
     estimated scf accuracy    <       0.00000013 Ry

     iteration # 23     ecut=    50.00 Ry     beta= 0.70
     Davidson diagonalization with overlap
     ethr =  3.67E-10,  avg # of iterations =  3.0

     total cpu time spent up to now is      208.5 secs

     End of self-consistent calculation

          k = 0.0000 0.0000 0.0000 (  1809 PWs)   bands (ev):

    -6.1731  -5.2146  -3.5602  -3.5387  -3.5387  -3.4741  -3.4741  -3.2800
    -3.2800  -3.1769  -3.1769  -1.9259   2.7562   8.8822   8.8823   9.8918
     9.9562   9.9563  11.9482  14.2889  19.2342  19.9096

     occupation numbers 
     1.0000   1.0000   1.0000   1.0000   1.0000   1.0000   1.0000   1.0000
     1.0000   1.0000   1.0000   1.0000   1.0000   1.0000   1.0000   1.0000
     1.0000   1.0000   0.0000   0.0000   0.0000   0.0000

          k = 0.0000 0.0000 0.1025 (  1804 PWs)   bands (ev):

    -6.0899  -5.2481  -3.5383  -3.5372  -3.5372  -3.4810  -3.4810  -3.2705
    -3.2705  -3.1814  -3.1814  -2.2174   3.2787   8.9507   8.9507   9.0879
     9.8810   9.8810  12.6200  14.3425  19.0420  19.9431

     occupation numbers 
     1.0000   1.0000   1.0000   1.0000   1.0000   1.0000   1.0000   1.0000
     1.0000   1.0000   1.0000   1.0000   1.0000   1.0000   1.0000   1.0000
     1.0000   1.0000   0.0000   0.0000   0.0000   0.0000

          k = 0.0000 0.0000 0.2050 (  1834 PWs)   bands (ev):

    -5.8676  -5.3664  -3.5308  -3.5308  -3.4981  -3.4981  -3.4473  -3.2467
    -3.2467  -3.1956  -3.1956  -2.7728   4.5202   7.6391   9.1402   9.1402
     9.6773   9.6774  13.6147  14.4275  18.6449  19.0931

     occupation numbers 
     1.0000   1.0000   1.0000   1.0000   1.0000   1.0000   1.0000   1.0000
     1.0000   1.0000   1.0000   1.0000   1.0000   1.0000   1.0000   1.0000
     1.0000   1.0000   0.0000   0.0000   0.0000   0.0000

          k = 0.0000 0.0000-0.3075 (  1822 PWs)   bands (ev):

    -5.5896  -5.5896  -3.5170  -3.5170  -3.5169  -3.5169  -3.2188  -3.2188
    -3.2188  -3.2188  -3.2141  -3.2138   6.0552   6.0553   9.4051   9.4052
     9.4053   9.4053  14.2734  14.2734  18.5217  18.5219

     occupation numbers 
     1.0000   1.0000   1.0000   1.0000   1.0000   1.0000   1.0000   1.0000
     1.0000   1.0000   1.0000   1.0000   1.0000   1.0000   1.0000   1.0000
     1.0000   1.0000   0.0000   0.0000   0.0000   0.0000

          k = 0.0000 0.1443 0.0000 (  1813 PWs)   bands (ev):

    -6.0207  -5.1765  -3.5404  -3.5171  -3.4933  -3.4543  -3.4434  -3.2931
    -3.2807  -3.2022  -3.1735  -1.8174   2.9800   7.8181   8.5673   8.7994
     9.7300   9.8167  12.9884  15.1507  18.6488  19.1622

     occupation numbers 
     1.0000   1.0000   1.0000   1.0000   1.0000   1.0000   1.0000   1.0000
     1.0000   1.0000   1.0000   1.0000   1.0000   1.0000   1.0000   1.0000
     1.0000   1.0000   0.0000   0.0000   0.0000   0.0000

          k = 0.0000 0.1443 0.1025 (  1812 PWs)   bands (ev):

    -5.9435  -5.2037  -3.5331  -3.5146  -3.4831  -3.4574  -3.4505  -3.2777
    -3.2714  -3.2093  -3.1788  -2.0957   3.4670   7.9017   8.3943   8.6446
     9.5551   9.7257  13.3663  15.1935  18.4836  19.0274

     occupation numbers 
     1.0000   1.0000   1.0000   1.0000   1.0000   1.0000   1.0000   1.0000
     1.0000   1.0000   1.0000   1.0000   1.0000   1.0000   1.0000   1.0000
     1.0000   1.0000   0.0000   0.0000   0.0000   0.0000

          k = 0.0000 0.1443 0.2050 (  1826 PWs)   bands (ev):

    -5.7398  -5.3014  -3.5183  -3.5057  -3.4834  -3.4685  -3.4069  -3.2479
    -3.2460  -3.2146  -3.1947  -2.6348   4.6192   7.3173   8.2311   8.8598
     9.1400   9.4830  14.1696  15.2214  18.0422  18.5654

     occupation numbers 
     1.0000   1.0000   1.0000   1.0000   1.0000   1.0000   1.0000   1.0000
     1.0000   1.0000   1.0000   1.0000   1.0000   1.0000   1.0000   1.0000
     1.0000   1.0000   0.0000   0.0000   0.0000   0.0000

          k = 0.0000 0.1443-0.3075 (  1830 PWs)   bands (ev):

    -5.4925  -5.4924  -3.5017  -3.5016  -3.4893  -3.4892  -3.2975  -3.2974
    -3.2195  -3.2194  -3.0545  -3.0544   6.0006   6.0006   8.6510   8.6510
     9.1645   9.1646  14.9114  14.9114  17.9895  17.9897

     occupation numbers 
     1.0000   1.0000   1.0000   1.0000   1.0000   1.0000   1.0000   1.0000
     1.0000   1.0000   1.0000   1.0000   1.0000   1.0000   1.0000   1.0000
     1.0000   1.0000   0.0000   0.0000   0.0000   0.0000

          k = 0.0000 0.2887 0.0000 (  1806 PWs)   bands (ev):

    -5.6600  -5.1037  -3.5005  -3.4794  -3.4170  -3.3691  -3.3201  -3.3002
    -3.2635  -3.1942  -3.1661  -1.5449   3.5789   5.8908   7.0736   7.9157
     9.1983   9.4563  14.3132  15.9611  17.3788  18.5573

     occupation numbers 
     1.0000   1.0000   1.0000   1.0000   1.0000   1.0000   1.0000   1.0000
     1.0000   1.0000   1.0000   1.0000   1.0000   1.0000   1.0000   1.0000
     1.0000   1.0000   0.0000   0.0000   0.0000   0.0000

          k = 0.0000 0.2887 0.1025 (  1808 PWs)   bands (ev):

    -5.6014  -5.1173  -3.5011  -3.4727  -3.4298  -3.3770  -3.3208  -3.2924
    -3.2570  -3.1726  -3.1559  -1.7797   3.8959   6.0692   6.8253   8.0074
     9.1492   9.3382  14.3205  16.0357  17.3385  18.3989

     occupation numbers 
     1.0000   1.0000   1.0000   1.0000   1.0000   1.0000   1.0000   1.0000
     1.0000   1.0000   1.0000   1.0000   1.0000   1.0000   1.0000   1.0000
     1.0000   1.0000   0.0000   0.0000   0.0000   0.0000

          k = 0.0000 0.2887 0.2050 (  1818 PWs)   bands (ev):

    -5.4532  -5.1710  -3.4952  -3.4537  -3.4518  -3.3983  -3.3210  -3.2973
    -3.2392  -3.1905  -3.0117  -2.2724   4.5898   6.0110   6.9086   8.2643
     8.7178   9.0291  14.5900  15.9165  17.3001  18.1304

     occupation numbers 
     1.0000   1.0000   1.0000   1.0000   1.0000   1.0000   1.0000   1.0000
     1.0000   1.0000   1.0000   1.0000   1.0000   1.0000   1.0000   1.0000
     1.0000   1.0000   0.0000   0.0000   0.0000   0.0000

          k = 0.0000 0.2887-0.3075 (  1818 PWs)   bands (ev):

    -5.2872  -5.2871  -3.4759  -3.4758  -3.4266  -3.4265  -3.3123  -3.3122
    -3.2149  -3.2148  -2.7227  -2.7226   5.3334   5.3334   7.8289   7.8289
     8.6338   8.6339  15.2450  15.2451  17.6852  17.6853

     occupation numbers 
     1.0000   1.0000   1.0000   1.0000   1.0000   1.0000   1.0000   1.0000
     1.0000   1.0000   1.0000   1.0000   1.0000   1.0000   1.0000   1.0000
     1.0000   1.0000   0.0000   0.0000   0.0000   0.0000

          k = 0.0000 0.4330 0.0000 (  1828 PWs)   bands (ev):

    -5.3428  -5.0570  -3.4875  -3.4657  -3.3793  -3.3193  -3.2985  -3.2804
    -3.2152  -3.1567  -2.6462  -1.3371   3.8015   4.8872   5.6297   7.3563
     8.3114   9.0965  15.0165  15.6708  16.4258  18.5167

     occupation numbers 
     1.0000   1.0000   1.0000   1.0000   1.0000   1.0000   1.0000   1.0000
     1.0000   1.0000   1.0000   1.0000   1.0000   1.0000   1.0000   1.0000
     1.0000   1.0000   0.0000   0.0000   0.0000   0.0000

          k = 0.0000 0.4330 0.1025 (  1825 PWs)   bands (ev):

    -5.3075  -5.0603  -3.4938  -3.4538  -3.3924  -3.3340  -3.3075  -3.2570
    -3.2131  -3.1635  -2.5981  -1.4763   3.6637   4.9618   5.8107   7.4577
     8.4871   8.9594  14.6213  15.5331  17.0330  18.2659

     occupation numbers 
     1.0000   1.0000   1.0000   1.0000   1.0000   1.0000   1.0000   1.0000
     1.0000   1.0000   1.0000   1.0000   1.0000   1.0000   1.0000   1.0000
     1.0000   1.0000   0.0000   0.0000   0.0000   0.0000

          k = 0.0000 0.4330 0.2050 (  1814 PWs)   bands (ev):

    -5.2221  -5.0796  -3.4998  -3.4428  -3.4211  -3.3351  -3.3078  -3.2495
    -3.2064  -3.1788  -2.4437  -1.8098   3.6680   4.4839   6.7958   7.7432
     8.5178   8.6042  14.2917  15.3197  17.4629  18.1233

     occupation numbers 
     1.0000   1.0000   1.0000   1.0000   1.0000   1.0000   1.0000   1.0000
     1.0000   1.0000   1.0000   1.0000   1.0000   1.0000   1.0000   1.0000
     1.0000   1.0000   0.0000   0.0000   0.0000   0.0000

          k = 0.0000 0.4330-0.3075 (  1810 PWs)   bands (ev):

    -5.1339  -5.1338  -3.4848  -3.4847  -3.3771  -3.3770  -3.2712  -3.2711
    -3.1946  -3.1945  -2.1707  -2.1707   3.9716   3.9716   7.8771   7.8771
     8.1567   8.1568  14.6791  14.6792  17.8726  17.8727

     occupation numbers 
     1.0000   1.0000   1.0000   1.0000   1.0000   1.0000   1.0000   1.0000
     1.0000   1.0000   1.0000   1.0000   1.0000   1.0000   1.0000   1.0000
     1.0000   1.0000   0.0000   0.0000   0.0000   0.0000

          k = 0.0000-0.5774 0.0000 (  1818 PWs)   bands (ev):

    -5.2340  -5.0455  -3.4918  -3.4656  -3.3677  -3.3234  -3.2721  -3.2653
    -3.1869  -3.1508  -2.0431  -1.5062   3.4217   4.6202   5.6407   7.1427
     7.6674   8.9508  15.0544  15.5927  16.0484  18.6557

     occupation numbers 
     1.0000   1.0000   1.0000   1.0000   1.0000   1.0000   1.0000   1.0000
     1.0000   1.0000   1.0000   1.0000   1.0000   1.0000   1.0000   1.0000
     1.0000   1.0000   0.0000   0.0000   0.0000   0.0000

          k = 0.0000-0.5774 0.1025 (  1824 PWs)   bands (ev):

    -5.2084  -5.0451  -3.4992  -3.4518  -3.3761  -3.3477  -3.2821  -3.2348
    -3.1863  -3.1573  -2.0191  -1.5493   3.2497   4.3042   6.1161   7.2475
     7.9758   8.8071  14.6854  15.0941  17.0741  18.2396

     occupation numbers 
     1.0000   1.0000   1.0000   1.0000   1.0000   1.0000   1.0000   1.0000
     1.0000   1.0000   1.0000   1.0000   1.0000   1.0000   1.0000   1.0000
     1.0000   1.0000   0.0000   0.0000   0.0000   0.0000

          k = 0.0000-0.5774 0.2050 (  1828 PWs)   bands (ev):

    -5.1473  -5.0529  -3.5076  -3.4470  -3.4141  -3.3137  -3.2999  -3.2226
    -3.1842  -3.1699  -1.9439  -1.6676   3.1029   3.7209   7.0948   7.5427
     8.3291   8.4362  14.1184  14.9731  17.6580  17.9487

     occupation numbers 
     1.0000   1.0000   1.0000   1.0000   1.0000   1.0000   1.0000   1.0000
     1.0000   1.0000   1.0000   1.0000   1.0000   1.0000   1.0000   1.0000
     1.0000   1.0000   0.0000   0.0000   0.0000   0.0000

          k = 0.0000-0.5774-0.3075 (  1808 PWs)   bands (ev):

    -5.0865  -5.0864  -3.4942  -3.4941  -3.3627  -3.3626  -3.2492  -3.2491
    -3.1793  -3.1792  -1.8178  -1.8178   3.2647   3.2648   7.9711   7.9712
     8.0033   8.0033  14.3951  14.3952  17.8297  17.8298

     occupation numbers 
     1.0000   1.0000   1.0000   1.0000   1.0000   1.0000   1.0000   1.0000
     1.0000   1.0000   1.0000   1.0000   1.0000   1.0000   1.0000   1.0000
     1.0000   1.0000   0.0000   0.0000   0.0000   0.0000

          k = 0.1250 0.2165 0.0000 (  1811 PWs)   bands (ev):

    -5.7632  -5.1223  -3.5027  -3.4944  -3.4275  -3.4207  -3.3260  -3.3100
    -3.2747  -3.2332  -3.1625  -1.6239   3.3965   6.6406   7.2221   8.1940
     9.3819   9.3984  14.0887  16.2271  18.0161  18.0228

     occupation numbers 
     1.0000   1.0000   1.0000   1.0000   1.0000   1.0000   1.0000   1.0000
     1.0000   1.0000   1.0000   1.0000   1.0000   1.0000   1.0000   1.0000
     1.0000   1.0000   0.0000   0.0000   0.0000   0.0000

          k = 0.1250 0.2165 0.1025 (  1820 PWs)   bands (ev):

    -5.6984  -5.1396  -3.5018  -3.4887  -3.4338  -3.4265  -3.3391  -3.2745
    -3.2614  -3.2368  -3.1618  -1.8745   3.7890   6.8003   7.0619   8.1197
     9.2630   9.3258  14.2426  16.2602  17.7391  18.0935

     occupation numbers 
     1.0000   1.0000   1.0000   1.0000   1.0000   1.0000   1.0000   1.0000
     1.0000   1.0000   1.0000   1.0000   1.0000   1.0000   1.0000   1.0000
     1.0000   1.0000   0.0000   0.0000   0.0000   0.0000

          k = 0.1250 0.2165 0.2050 (  1817 PWs)   bands (ev):

    -5.5325  -5.2050  -3.4923  -3.4730  -3.4502  -3.4357  -3.3415  -3.2888
    -3.2329  -3.2070  -3.0930  -2.3859   4.6839   6.4952   7.2831   8.2061
     8.8911   8.9569  14.7530  16.1525  17.3698  18.0371

     occupation numbers 
     1.0000   1.0000   1.0000   1.0000   1.0000   1.0000   1.0000   1.0000
     1.0000   1.0000   1.0000   1.0000   1.0000   1.0000   1.0000   1.0000
     1.0000   1.0000   0.0000   0.0000   0.0000   0.0000

          k = 0.1250 0.2165-0.3075 (  1816 PWs)   bands (ev):

    -5.3422  -5.3421  -3.4727  -3.4725  -3.4514  -3.4513  -3.3202  -3.3201
    -3.2167  -3.2166  -2.8322  -2.8321   5.6569   5.6569   8.0224   8.0225
     8.5998   8.5999  15.5165  15.5166  17.5918  17.5920

     occupation numbers 
     1.0000   1.0000   1.0000   1.0000   1.0000   1.0000   1.0000   1.0000
     1.0000   1.0000   1.0000   1.0000   1.0000   1.0000   1.0000   1.0000
     1.0000   1.0000   0.0000   0.0000   0.0000   0.0000

          k = 0.1250 0.3608 0.0000 (  1806 PWs)   bands (ev):

    -5.4268  -5.0687  -3.4924  -3.4613  -3.3764  -3.3436  -3.3248  -3.2697
    -3.2363  -3.1817  -2.8755  -1.3511   3.9713   5.2581   5.9815   7.1474
     8.7119   8.7968  15.3141  16.6198  16.7010  18.1634

     occupation numbers 
     1.0000   1.0000   1.0000   1.0000   1.0000   1.0000   1.0000   1.0000
     1.0000   1.0000   1.0000   1.0000   1.0000   1.0000   1.0000   1.0000
     1.0000   1.0000   0.0000   0.0000   0.0000   0.0000

          k = 0.1250 0.3608 0.1025 (  1806 PWs)   bands (ev):

    -5.3844  -5.0744  -3.4820  -3.4661  -3.3945  -3.3538  -3.3071  -3.2813
    -3.2248  -3.1903  -2.8255  -1.5335   4.0052   5.4618   5.9985   7.1624
     8.6162   8.8463  15.0990  16.5919  16.8905  18.1755

     occupation numbers 
     1.0000   1.0000   1.0000   1.0000   1.0000   1.0000   1.0000   1.0000
     1.0000   1.0000   1.0000   1.0000   1.0000   1.0000   1.0000   1.0000
     1.0000   1.0000   0.0000   0.0000   0.0000   0.0000

          k = 0.1250 0.3608 0.2050 (  1818 PWs)   bands (ev):

    -5.2808  -5.1020  -3.4748  -3.4500  -3.4207  -3.3734  -3.3102  -3.2884
    -3.2128  -3.1981  -2.6622  -1.9458   4.2081   5.1269   6.7899   7.3976
     8.2122   8.7412  15.0027  16.1569  17.3318  18.1919

     occupation numbers 
     1.0000   1.0000   1.0000   1.0000   1.0000   1.0000   1.0000   1.0000
     1.0000   1.0000   1.0000   1.0000   1.0000   1.0000   1.0000   1.0000
     1.0000   1.0000   0.0000   0.0000   0.0000   0.0000

          k = 0.1250 0.3608-0.3075 (  1818 PWs)   bands (ev):

    -5.1716  -5.1716  -3.4601  -3.4600  -3.4028  -3.4027  -3.3064  -3.3063
    -3.2026  -3.2025  -2.3631  -2.3630   4.6101   4.6101   7.6122   7.6123
     8.0927   8.0928  15.4485  15.4486  17.8766  17.8767

     occupation numbers 
     1.0000   1.0000   1.0000   1.0000   1.0000   1.0000   1.0000   1.0000
     1.0000   1.0000   1.0000   1.0000   1.0000   1.0000   1.0000   1.0000
     1.0000   1.0000   0.0000   0.0000   0.0000   0.0000

          k = 0.1250 0.5052 0.0000 (  1817 PWs)   bands (ev):

    -5.2274  -5.0490  -3.5051  -3.4481  -3.3456  -3.3211  -3.2859  -3.2752
    -3.2057  -3.1685  -2.1695  -1.3465   3.6797   4.7941   5.6352   6.5529
     7.8086   8.4303  15.8070  16.0286  16.3031  18.5162

     occupation numbers 
     1.0000   1.0000   1.0000   1.0000   1.0000   1.0000   1.0000   1.0000
     1.0000   1.0000   1.0000   1.0000   1.0000   1.0000   1.0000   1.0000
     1.0000   1.0000   0.0000   0.0000   0.0000   0.0000

          k = 0.1250 0.5052 0.1025 (  1820 PWs)   bands (ev):

    -5.2020  -5.0477  -3.4934  -3.4541  -3.3700  -3.3246  -3.2974  -3.2492
    -3.2025  -3.1782  -2.1321  -1.4168   3.5100   4.5352   6.0009   6.7431
     8.0438   8.3044  15.1721  16.1083  16.9865  18.2141

     occupation numbers 
     1.0000   1.0000   1.0000   1.0000   1.0000   1.0000   1.0000   1.0000
     1.0000   1.0000   1.0000   1.0000   1.0000   1.0000   1.0000   1.0000
     1.0000   1.0000   0.0000   0.0000   0.0000   0.0000

          k = 0.1250 0.5052 0.2050 (  1815 PWs)   bands (ev):

    -5.1419  -5.0530  -3.4838  -3.4391  -3.4223  -3.3271  -3.2943  -3.2430
    -3.1993  -3.1890  -2.0172  -1.6019   3.3829   3.9984   6.6019   7.4127
     7.7476   8.4976  14.7634  15.8067  17.5959  18.1768

     occupation numbers 
     1.0000   1.0000   1.0000   1.0000   1.0000   1.0000   1.0000   1.0000
     1.0000   1.0000   1.0000   1.0000   1.0000   1.0000   1.0000   1.0000
     1.0000   1.0000   0.0000   0.0000   0.0000   0.0000

          k = 0.1250 0.5052-0.3075 (  1818 PWs)   bands (ev):

    -5.0835  -5.0834  -3.4715  -3.4714  -3.3766  -3.3765  -3.2646  -3.2645
    -3.1938  -3.1937  -1.8281  -1.8281   3.5564   3.5564   7.1629   7.1629
     8.2297   8.2297  15.0708  15.0709  18.0731  18.0732

     occupation numbers 
     1.0000   1.0000   1.0000   1.0000   1.0000   1.0000   1.0000   1.0000
     1.0000   1.0000   1.0000   1.0000   1.0000   1.0000   1.0000   1.0000
     1.0000   1.0000   0.0000   0.0000   0.0000   0.0000

          k = 0.2500 0.4330 0.0000 (  1803 PWs)   bands (ev):

    -5.2201  -5.0531  -3.5244  -3.3968  -3.3405  -3.3254  -3.3128  -3.2777
    -3.2199  -3.1906  -2.2525  -1.2307   4.1482   4.7698   5.7832   5.9327
     7.8439   7.9685  15.7068  16.7062  17.7963  17.9347

     occupation numbers 
     1.0000   1.0000   1.0000   1.0000   1.0000   1.0000   1.0000   1.0000
     1.0000   1.0000   1.0000   1.0000   1.0000   1.0000   1.0000   1.0000
     1.0000   1.0000   0.0000   0.0000   0.0000   0.0000

          k = 0.2500 0.4330 0.1025 (  1807 PWs)   bands (ev):

    -5.1950  -5.0508  -3.5080  -3.4159  -3.3580  -3.3365  -3.2864  -3.2855
    -3.2086  -3.2055  -2.2068  -1.3233   3.9475   4.6567   5.8685   6.3119
     7.6352   8.2462  15.8777  16.3812  17.8380  18.0238

     occupation numbers 
     1.0000   1.0000   1.0000   1.0000   1.0000   1.0000   1.0000   1.0000
     1.0000   1.0000   1.0000   1.0000   1.0000   1.0000   1.0000   1.0000
     1.0000   1.0000   0.0000   0.0000   0.0000   0.0000

          k = 0.2500 0.4330 0.2050 (  1810 PWs)   bands (ev):

    -5.1361  -5.0535  -3.4645  -3.4391  -3.3948  -3.3512  -3.2959  -3.2794
    -3.2159  -3.1970  -2.0671  -1.5591   3.7970   4.2985   6.0378   7.0501
     7.4060   8.5568  15.8914  16.0614  17.9130  18.1911

     occupation numbers 
     1.0000   1.0000   1.0000   1.0000   1.0000   1.0000   1.0000   1.0000
     1.0000   1.0000   1.0000   1.0000   1.0000   1.0000   1.0000   1.0000
     1.0000   1.0000   0.0000   0.0000   0.0000   0.0000

          k = 0.2500 0.4330-0.3075 (  1824 PWs)   bands (ev):

    -5.0805  -5.0804  -3.4400  -3.4399  -3.3903  -3.3902  -3.2967  -3.2966
    -3.2007  -3.2006  -1.8377  -1.8376   3.9370   3.9370   6.5038   6.5039
     8.2595   8.2595  15.8727  15.8728  18.0143  18.0144

     occupation numbers 
     1.0000   1.0000   1.0000   1.0000   1.0000   1.0000   1.0000   1.0000
     1.0000   1.0000   1.0000   1.0000   1.0000   1.0000   1.0000   1.0000
     1.0000   1.0000   0.0000   0.0000   0.0000   0.0000

          k = 0.2500 0.5774 0.0000 (  1815 PWs)   bands (ev):

    -5.1325  -5.0638  -3.5384  -3.3749  -3.3140  -3.3091  -3.3009  -3.2848
    -3.2342  -3.1923  -1.7124  -1.3882   4.0629   4.7281   5.0551   6.4641
     7.2587   7.4627  15.2391  17.3800  17.7644  18.3264

     occupation numbers 
     1.0000   1.0000   1.0000   1.0000   1.0000   1.0000   1.0000   1.0000
     1.0000   1.0000   1.0000   1.0000   1.0000   1.0000   1.0000   1.0000
     1.0000   1.0000   0.0000   0.0000   0.0000   0.0000

          k = 0.2500 0.5774 0.1025 (  1818 PWs)   bands (ev):

    -5.1159  -5.0565  -3.5201  -3.3956  -3.3533  -3.3091  -3.2924  -3.2538
    -3.2330  -3.2091  -1.6922  -1.4080   3.8913   4.4320   5.1081   6.9363
     7.1853   7.6825  15.4907  17.2084  17.7125  18.0248

     occupation numbers 
     1.0000   1.0000   1.0000   1.0000   1.0000   1.0000   1.0000   1.0000
     1.0000   1.0000   1.0000   1.0000   1.0000   1.0000   1.0000   1.0000
     1.0000   1.0000   0.0000   0.0000   0.0000   0.0000

          k = 0.2500 0.5774 0.2050 (  1817 PWs)   bands (ev):

    -5.0790  -5.0448  -3.4704  -3.4213  -3.4028  -3.3334  -3.2732  -3.2508
    -3.2275  -3.2231  -1.6342  -1.4662   3.6442   3.9431   5.4282   6.6271
     7.8030   8.2808  15.8171  16.8712  17.2123  17.9457

     occupation numbers 
     1.0000   1.0000   1.0000   1.0000   1.0000   1.0000   1.0000   1.0000
     1.0000   1.0000   1.0000   1.0000   1.0000   1.0000   1.0000   1.0000
     1.0000   1.0000   0.0000   0.0000   0.0000   0.0000

          k = 0.2500 0.5774-0.3075 (  1818 PWs)   bands (ev):

    -5.0495  -5.0494  -3.4324  -3.4323  -3.3933  -3.3932  -3.2643  -3.2642
    -3.2207  -3.2207  -1.5505  -1.5505   3.6413   3.6413   5.9778   5.9779
     8.3906   8.3906  16.0679  16.0680  17.7375  17.7375

     occupation numbers 
     1.0000   1.0000   1.0000   1.0000   1.0000   1.0000   1.0000   1.0000
     1.0000   1.0000   1.0000   1.0000   1.0000   1.0000   1.0000   1.0000
     1.0000   1.0000   0.0000   0.0000   0.0000   0.0000

          k = 0.0000-0.1443 0.1025 (  1812 PWs)   bands (ev):

    -5.9435  -5.2038  -3.5331  -3.5146  -3.4831  -3.4574  -3.4505  -3.2777
    -3.2714  -3.2093  -3.1788  -2.0957   3.4670   7.9017   8.3943   8.6446
     9.5551   9.7257  13.3663  15.1935  18.4836  19.0274

     occupation numbers 
     1.0000   1.0000   1.0000   1.0000   1.0000   1.0000   1.0000   1.0000
     1.0000   1.0000   1.0000   1.0000   1.0000   1.0000   1.0000   1.0000
     1.0000   1.0000   0.0000   0.0000   0.0000   0.0000

          k = 0.0000-0.1443 0.2050 (  1826 PWs)   bands (ev):

    -5.7398  -5.3014  -3.5183  -3.5057  -3.4834  -3.4685  -3.4069  -3.2479
    -3.2459  -3.2147  -3.1947  -2.6348   4.6192   7.3173   8.2310   8.8598
     9.1400   9.4830  14.1696  15.2214  18.0422  18.5654

     occupation numbers 
     1.0000   1.0000   1.0000   1.0000   1.0000   1.0000   1.0000   1.0000
     1.0000   1.0000   1.0000   1.0000   1.0000   1.0000   1.0000   1.0000
     1.0000   1.0000   0.0000   0.0000   0.0000   0.0000

          k = 0.0000-0.2887 0.1025 (  1808 PWs)   bands (ev):

    -5.6014  -5.1174  -3.5011  -3.4727  -3.4298  -3.3769  -3.3208  -3.2924
    -3.2570  -3.1726  -3.1559  -1.7797   3.8959   6.0692   6.8253   8.0073
     9.1492   9.3382  14.3205  16.0357  17.3385  18.3988

     occupation numbers 
     1.0000   1.0000   1.0000   1.0000   1.0000   1.0000   1.0000   1.0000
     1.0000   1.0000   1.0000   1.0000   1.0000   1.0000   1.0000   1.0000
     1.0000   1.0000   0.0000   0.0000   0.0000   0.0000

          k = 0.0000-0.2887 0.2050 (  1818 PWs)   bands (ev):

    -5.4532  -5.1710  -3.4952  -3.4537  -3.4519  -3.3983  -3.3210  -3.2973
    -3.2392  -3.1905  -3.0117  -2.2724   4.5898   6.0110   6.9086   8.2643
     8.7178   9.0291  14.5900  15.9165  17.3002  18.1303

     occupation numbers 
     1.0000   1.0000   1.0000   1.0000   1.0000   1.0000   1.0000   1.0000
     1.0000   1.0000   1.0000   1.0000   1.0000   1.0000   1.0000   1.0000
     1.0000   1.0000   0.0000   0.0000   0.0000   0.0000

          k = 0.0000-0.4330 0.1025 (  1825 PWs)   bands (ev):

    -5.3075  -5.0603  -3.4938  -3.4538  -3.3924  -3.3340  -3.3075  -3.2570
    -3.2131  -3.1635  -2.5981  -1.4763   3.6637   4.9619   5.8107   7.4577
     8.4871   8.9594  14.6213  15.5331  17.0330  18.2659

     occupation numbers 
     1.0000   1.0000   1.0000   1.0000   1.0000   1.0000   1.0000   1.0000
     1.0000   1.0000   1.0000   1.0000   1.0000   1.0000   1.0000   1.0000
     1.0000   1.0000   0.0000   0.0000   0.0000   0.0000

          k = 0.0000-0.4330 0.2050 (  1814 PWs)   bands (ev):

    -5.2221  -5.0796  -3.4998  -3.4428  -3.4211  -3.3351  -3.3078  -3.2495
    -3.2064  -3.1788  -2.4437  -1.8098   3.6680   4.4839   6.7958   7.7432
     8.5178   8.6042  14.2917  15.3197  17.4630  18.1233

     occupation numbers 
     1.0000   1.0000   1.0000   1.0000   1.0000   1.0000   1.0000   1.0000
     1.0000   1.0000   1.0000   1.0000   1.0000   1.0000   1.0000   1.0000
     1.0000   1.0000   0.0000   0.0000   0.0000   0.0000

          k = 0.1250-0.3608 0.1025 (  1806 PWs)   bands (ev):

    -5.3844  -5.0744  -3.4820  -3.4661  -3.3946  -3.3537  -3.3070  -3.2813
    -3.2248  -3.1903  -2.8255  -1.5335   4.0052   5.4618   5.9984   7.1624
     8.6162   8.8463  15.0990  16.5919  16.8905  18.1755

     occupation numbers 
     1.0000   1.0000   1.0000   1.0000   1.0000   1.0000   1.0000   1.0000
     1.0000   1.0000   1.0000   1.0000   1.0000   1.0000   1.0000   1.0000
     1.0000   1.0000   0.0000   0.0000   0.0000   0.0000

          k = 0.1250-0.3608 0.2050 (  1818 PWs)   bands (ev):

    -5.2807  -5.1020  -3.4748  -3.4500  -3.4208  -3.3734  -3.3102  -3.2884
    -3.2129  -3.1981  -2.6622  -1.9458   4.2081   5.1269   6.7899   7.3976
     8.2122   8.7412  15.0027  16.1569  17.3318  18.1919

     occupation numbers 
     1.0000   1.0000   1.0000   1.0000   1.0000   1.0000   1.0000   1.0000
     1.0000   1.0000   1.0000   1.0000   1.0000   1.0000   1.0000   1.0000
     1.0000   1.0000   0.0000   0.0000   0.0000   0.0000

          k = 0.1250-0.5052 0.1025 (  1820 PWs)   bands (ev):

    -5.2019  -5.0477  -3.4934  -3.4541  -3.3700  -3.3246  -3.2974  -3.2492
    -3.2025  -3.1782  -2.1321  -1.4168   3.5100   4.5352   6.0009   6.7431
     8.0439   8.3044  15.1721  16.1083  16.9865  18.2141

     occupation numbers 
     1.0000   1.0000   1.0000   1.0000   1.0000   1.0000   1.0000   1.0000
     1.0000   1.0000   1.0000   1.0000   1.0000   1.0000   1.0000   1.0000
     1.0000   1.0000   0.0000   0.0000   0.0000   0.0000

          k = 0.1250-0.5052 0.2050 (  1815 PWs)   bands (ev):

    -5.1419  -5.0530  -3.4838  -3.4391  -3.4223  -3.3271  -3.2943  -3.2430
    -3.1994  -3.1890  -2.0172  -1.6019   3.3829   3.9984   6.6019   7.4126
     7.7477   8.4976  14.7634  15.8067  17.5959  18.1768

     occupation numbers 
     1.0000   1.0000   1.0000   1.0000   1.0000   1.0000   1.0000   1.0000
     1.0000   1.0000   1.0000   1.0000   1.0000   1.0000   1.0000   1.0000
     1.0000   1.0000   0.0000   0.0000   0.0000   0.0000

     the Fermi energy is    11.0507 ev

!    total energy              =    -612.41810166 Ry
     Harris-Foulkes estimate   =    -612.41810166 Ry
     estimated scf accuracy    <          2.3E-09 Ry

     total all-electron energy =     -7995.345020 Ry

     The total energy is the sum of the following terms:

     one-electron contribution =    -179.28927333 Ry
     hartree contribution      =     129.58084176 Ry
     xc contribution           =     -88.51941669 Ry
     ewald contribution        =    -234.30214793 Ry
     one-center paw contrib.   =    -239.88810548 Ry
      -> PAW hartree energy AE =     325.39224715 Ry
      -> PAW hartree energy PS =    -323.40782217 Ry
      -> PAW xc energy AE      =    -329.21976136 Ry
      -> PAW xc energy PS      =      87.34723091 Ry
      -> total E_H with PAW    =     131.56526674 Ry
      -> total E_XC with PAW   =    -330.39194714 Ry
     smearing contrib. (-TS)   =      -0.00000000 Ry

     convergence has been achieved in  23 iterations

     Writing output data file gan.save

     init_run     :      4.64s CPU      4.74s WALL (       1 calls)
     electrons    :    201.01s CPU    202.70s WALL (       1 calls)

     Called by init_run:
     wfcinit      :      3.00s CPU      3.04s WALL (       1 calls)
     wfcinit:atom :      0.05s CPU      0.05s WALL (      50 calls)
     wfcinit:wfcr :      2.62s CPU      2.65s WALL (      50 calls)
     potinit      :      0.71s CPU      0.74s WALL (       1 calls)

     Called by electrons:
     c_bands      :    162.33s CPU    162.76s WALL (      23 calls)
     sum_band     :     22.02s CPU     22.67s WALL (      23 calls)
     v_of_rho     :      0.66s CPU      0.66s WALL (      24 calls)
     v_h          :      0.02s CPU      0.02s WALL (      24 calls)
     v_xc         :      0.64s CPU      0.64s WALL (      24 calls)
     newd         :      1.66s CPU      2.27s WALL (      24 calls)
     PAW_pot      :     14.95s CPU     14.98s WALL (      24 calls)
     mix_rho      :      0.11s CPU      0.11s WALL (      23 calls)

     Called by c_bands:
     init_us_2    :      3.32s CPU      3.35s WALL (    2350 calls)
     cegterg      :    156.01s CPU    156.41s WALL (    1150 calls)

     Called by sum_band:
     sum_band:bec :      0.06s CPU      0.06s WALL (    1150 calls)
     addusdens    :      1.52s CPU      2.10s WALL (      23 calls)

     Called by *egterg:
     h_psi        :     98.54s CPU     98.88s WALL (    4245 calls)
     s_psi        :     12.98s CPU     13.01s WALL (    4245 calls)
     g_psi        :      0.43s CPU      0.44s WALL (    3045 calls)
     cdiaghg      :      5.55s CPU      5.57s WALL (    4195 calls)
     cegterg:over :     15.94s CPU     15.96s WALL (    3045 calls)
     cegterg:upda :     11.61s CPU     11.63s WALL (    3045 calls)
     cegterg:last :      5.78s CPU      5.78s WALL (    1163 calls)

     Called by h_psi:
     h_psi:pot    :     97.51s CPU     97.84s WALL (    4245 calls)
     h_psi:calbec :     14.06s CPU     14.08s WALL (    4245 calls)
     vloc_psi     :     70.34s CPU     70.63s WALL (    4245 calls)
     add_vuspsi   :     13.07s CPU     13.09s WALL (    4245 calls)

     General routines
     calbec       :     19.14s CPU     19.18s WALL (    5395 calls)
     fft          :      0.24s CPU      0.24s WALL (     311 calls)
     fftw         :     75.61s CPU     75.93s WALL (  157760 calls)


     PAW routines
     PAW_pot      :     14.95s CPU     14.98s WALL (      24 calls)
     PAW_symme    :      0.01s CPU      0.01s WALL (      47 calls)

     PWSCF        :  3m26.73s CPU     3m28.89s WALL


   This run was terminated on:  12: 7:14  30Apr2025            

=------------------------------------------------------------------------------=
   JOB DONE.
=------------------------------------------------------------------------------=
